REMARK SMILES CO[C@H]1C[C@](N)(C(=O)N2CCN3c4nc(OC[C@@H]5CCCN5C)nc5cc(-c6nc(N)cc(C)c6C(F)(F)F)c(Cl)c(c45)OC[C@@H]3C2)C1
REMARK SMILES IDX 13 1 14 2 15 3 24 4 25 5 26 6 27 7 40 8 41 9 42 10 43 11
REMARK SMILES IDX 12 12 9 13 10 14 47 15 11 16 46 17 7 19 8 20 5 21 3 22 48 23
REMARK SMILES IDX 4 24 2 25 1 26 6 27 16 30 17 31 18 32 19 33 22 34 20 35
REMARK SMILES IDX 21 36 23 37 44 38 45 39 28 41 29 42 35 43 30 44 33 45 32 46
REMARK SMILES IDX 34 47 36 48 37 49 38 50 39 51 31 52
REMARK H PARENT 6 28 6 29 31 53 31 54
REMARK Flexibility Score:   36.900
ROOT
ATOM      1  C   UNL     1      -0.460  -0.374  -1.505  1.00  0.00     0.148 A 
ATOM      2  N   UNL     1      -0.011   0.736  -2.129  1.00  0.00    -0.177 NA
ATOM      3  C   UNL     1      -0.349   1.928  -1.644  1.00  0.00     0.319 A 
ATOM      4  N   UNL     1      -1.097   2.127  -0.568  1.00  0.00    -0.195 NA
ATOM      5  C   UNL     1      -1.547   1.045   0.057  1.00  0.00     0.084 A 
ATOM      6  C   UNL     1      -2.302   1.295   1.193  1.00  0.00     0.041 A 
ATOM      7  C   UNL     1      -2.844   0.278   1.990  1.00  0.00     0.025 A 
ATOM      8  C   UNL     1      -2.600  -1.043   1.610  1.00  0.00     0.093 A 
ATOM      9  Cl  UNL     1      -3.260  -2.354   2.543  1.00  0.00    -0.080 Cl
ATOM     10  C   UNL     1      -1.859  -1.320   0.443  1.00  0.00     0.151 A 
ATOM     11  C   UNL     1      -1.291  -0.277  -0.357  1.00  0.00     0.087 A 
ENDROOT
BRANCH   1  12
ATOM     12  N   UNL     1      -0.011  -1.538  -2.108  1.00  0.00    -0.346 N 
ATOM     13  N   UNL     1       1.469  -3.363  -0.536  1.00  0.00    -0.337 N 
ATOM     14  C   UNL     1       2.109  -2.128  -1.011  1.00  0.00     0.141 C 
ATOM     15  C   UNL     1       0.413  -3.927  -1.385  1.00  0.00     0.148 C 
ATOM     16  C   UNL     1       1.455  -1.563  -2.286  1.00  0.00     0.140 C 
ATOM     17  C   UNL     1      -0.598  -2.889  -1.969  1.00  0.00     0.141 CG0
ATOM     18  G   UNL     1      -1.927  -2.920  -1.231  1.00  0.00     0.000 G0
BRANCH  13  19
ATOM     19  C   UNL     1       1.967  -4.129   0.524  1.00  0.00     0.242 C 
ATOM     20  O   UNL     1       1.521  -5.269   0.724  1.00  0.00    -0.273 OA
BRANCH  19  21
ATOM     21  C   UNL     1       3.098  -3.507   1.436  1.00  0.00     0.101 C 
ATOM     22  C   UNL     1       5.104  -3.869   2.216  1.00  0.00     0.122 C 
ATOM     23  C   UNL     1       3.701  -4.425   2.542  1.00  0.00     0.064 C 
ATOM     24  C   UNL     1       4.534  -3.369   0.869  1.00  0.00     0.064 C 
BRANCH  22  25
ATOM     25  O   UNL     1       5.584  -2.850   3.125  1.00  0.00    -0.381 OA
ATOM     26  C   UNL     1       6.891  -2.359   2.866  1.00  0.00     0.195 C 
ENDBRANCH  22  25
BRANCH  21  27
ATOM     27  N   UNL     1       2.734  -2.227   2.090  1.00  0.00    -0.317 NA
ATOM     28  H   UNL     1       1.870  -2.295   2.631  1.00  0.00     0.119 HD
ATOM     29  H   UNL     1       3.440  -1.899   2.758  1.00  0.00     0.119 HD
ENDBRANCH  21  27
ENDBRANCH  19  21
ENDBRANCH  13  19
ENDBRANCH   1  12
BRANCH   3  30
ATOM     30  O   UNL     1       0.113   3.076  -2.252  1.00  0.00    -0.462 OA
BRANCH  30  31
ATOM     31  C   UNL     1       0.815   2.813  -3.469  1.00  0.00     0.252 C 
BRANCH  31  32
ATOM     32  C   UNL     1       1.262   4.153  -4.094  1.00  0.00     0.094 C 
ATOM     33  C   UNL     1       0.059   5.082  -4.345  1.00  0.00     0.024 C 
ATOM     34  N   UNL     1       1.973   4.108  -5.390  1.00  0.00    -0.300 NA
ATOM     35  C   UNL     1       0.233   5.575  -5.772  1.00  0.00     0.017 C 
ATOM     36  C   UNL     1       1.007   4.450  -6.430  1.00  0.00     0.084 C 
ATOM     37  C   UNL     1       2.712   2.894  -5.685  1.00  0.00     0.105 C 
ENDBRANCH  31  32
ENDBRANCH  30  31
ENDBRANCH   3  30
BRANCH  10  38
ATOM     38  O   UNL     1      -1.715  -2.651   0.149  1.00  0.00    -0.489 OA
BRANCH  38  39
ATOM     39  C   UNL     1      -1.927  -2.920  -1.231  1.00  0.00     0.256 CG0
ATOM     40  G   UNL     1      -0.598  -2.889  -1.969  1.00  0.00     0.000 G0
ENDBRANCH  38  39
ENDBRANCH  10  38
BRANCH   7  41
ATOM     41  C   UNL     1      -3.616   0.635   3.187  1.00  0.00     0.087 A 
ATOM     42  N   UNL     1      -2.840   0.704   4.301  1.00  0.00    -0.231 NA
ATOM     43  C   UNL     1      -4.990   0.905   3.190  1.00  0.00     0.085 A 
ATOM     44  C   UNL     1      -3.418   1.026   5.463  1.00  0.00     0.124 A 
ATOM     45  C   UNL     1      -5.567   1.292   4.419  1.00  0.00    -0.033 A 
ATOM     46  C   UNL     1      -4.762   1.330   5.564  1.00  0.00     0.050 A 
ATOM     47  C   UNL     1      -7.021   1.655   4.553  1.00  0.00     0.045 C 
BRANCH  43  48
ATOM     48  C   UNL     1      -5.783   0.853   1.910  1.00  0.00     0.418 C 
ATOM     49  F   UNL     1      -5.744   2.038   1.240  1.00  0.00    -0.166 F 
ATOM     50  F   UNL     1      -7.106   0.578   2.091  1.00  0.00    -0.166 F 
ATOM     51  F   UNL     1      -5.361  -0.089   1.021  1.00  0.00    -0.166 F 
ENDBRANCH  43  48
BRANCH  44  52
ATOM     52  N   UNL     1      -2.592   1.082   6.579  1.00  0.00    -0.384 N 
ATOM     53  H   UNL     1      -1.667   0.784   6.278  1.00  0.00     0.158 HD
ATOM     54  H   UNL     1      -2.943   0.505   7.332  1.00  0.00     0.158 HD
ENDBRANCH  44  52
ENDBRANCH   7  41
TORSDOF 10
