REMARK SMILES Cc1cc(N)nc(-c2cc3nc(OC[C@@H]4CCCN4C)nc4c3c(c2Cl)OC[C@@H]2CN(C(=O)C3(N)CC3)CCN42)c1C(F)(F)F
REMARK SMILES IDX 8 1 9 2 10 3 11 4 12 5 21 6 22 7 23 8 24 9 25 10 26 11 7 12
REMARK SMILES IDX 2 13 3 14 41 15 4 16 6 17 1 18 42 19 43 20 44 21 45 22 5 23
REMARK SMILES IDX 27 26 28 27 13 29 14 30 15 31 16 32 19 33 17 34 18 35 20 36
REMARK SMILES IDX 40 37 39 38 29 39 38 40 30 41 31 42 32 44 33 45 34 46 36 47
REMARK SMILES IDX 37 48 35 49
REMARK H PARENT 5 24 5 25 35 50 35 51
REMARK Flexibility Score:   35.900
ROOT
ATOM      1  C   UNL     1       0.631  -2.889   1.769  1.00  0.00     0.025 A 
ATOM      2  C   UNL     1       1.045  -2.523   0.483  1.00  0.00     0.041 A 
ATOM      3  C   UNL     1       1.002  -1.218   0.018  1.00  0.00     0.084 A 
ATOM      4  N   UNL     1       1.439  -1.063  -1.225  1.00  0.00    -0.195 NA
ATOM      5  C   UNL     1       1.439   0.170  -1.709  1.00  0.00     0.319 A 
ATOM      6  N   UNL     1       1.053   1.248  -1.037  1.00  0.00    -0.177 NA
ATOM      7  C   UNL     1       0.608   1.115   0.233  1.00  0.00     0.148 A 
ATOM      8  C   UNL     1       0.530  -0.172   0.836  1.00  0.00     0.087 A 
ATOM      9  C   UNL     1       0.070  -0.548   2.139  1.00  0.00     0.151 A 
ATOM     10  C   UNL     1       0.150  -1.879   2.604  1.00  0.00     0.093 A 
ATOM     11  Cl  UNL     1      -0.411  -2.271   4.206  1.00  0.00    -0.080 Cl
ENDROOT
BRANCH   1  12
ATOM     12  C   UNL     1       0.737  -4.293   2.185  1.00  0.00     0.087 A 
ATOM     13  C   UNL     1       0.059  -6.592   2.323  1.00  0.00    -0.033 A 
ATOM     14  C   UNL     1       1.254  -6.843   3.009  1.00  0.00     0.050 A 
ATOM     15  C   UNL     1      -0.231  -5.271   1.918  1.00  0.00     0.085 A 
ATOM     16  C   UNL     1       2.136  -5.805   3.247  1.00  0.00     0.124 A 
ATOM     17  N   UNL     1       1.904  -4.556   2.831  1.00  0.00    -0.231 NA
ATOM     18  C   UNL     1      -0.870  -7.744   2.056  1.00  0.00     0.045 C 
BRANCH  15  19
ATOM     19  C   UNL     1      -1.483  -4.913   1.161  1.00  0.00     0.418 C 
ATOM     20  F   UNL     1      -1.288  -4.943  -0.188  1.00  0.00    -0.166 F 
ATOM     21  F   UNL     1      -2.533  -5.749   1.397  1.00  0.00    -0.166 F 
ATOM     22  F   UNL     1      -1.969  -3.670   1.435  1.00  0.00    -0.166 F 
ENDBRANCH  15  19
BRANCH  16  23
ATOM     23  N   UNL     1       3.344  -6.032   3.898  1.00  0.00    -0.384 N 
ATOM     24  H   UNL     1       3.208  -6.481   4.796  1.00  0.00     0.158 HD
ATOM     25  H   UNL     1       3.804  -5.129   3.996  1.00  0.00     0.158 HD
ENDBRANCH  16  23
ENDBRANCH   1  12
BRANCH   9  26
ATOM     26  O   UNL     1      -0.467   0.338   3.037  1.00  0.00    -0.489 OA
BRANCH  26  27
ATOM     27  C   UNL     1      -1.348   1.282   2.440  1.00  0.00     0.256 CG0
ATOM     28  G   UNL     1      -0.538   2.507   2.056  1.00  0.00     0.000 G0
ENDBRANCH  26  27
ENDBRANCH   9  26
BRANCH   5  29
ATOM     29  O   UNL     1       1.855   0.417  -2.995  1.00  0.00    -0.462 OA
BRANCH  29  30
ATOM     30  C   UNL     1       2.164  -0.733  -3.788  1.00  0.00     0.252 C 
BRANCH  30  31
ATOM     31  C   UNL     1       0.989  -1.077  -4.720  1.00  0.00     0.094 C 
ATOM     32  C   UNL     1      -0.182  -1.724  -3.980  1.00  0.00     0.024 C 
ATOM     33  N   UNL     1       1.280  -2.097  -5.747  1.00  0.00    -0.300 NA
ATOM     34  C   UNL     1      -0.944  -2.495  -5.050  1.00  0.00     0.017 C 
ATOM     35  C   UNL     1      -0.032  -2.499  -6.267  1.00  0.00     0.084 C 
ATOM     36  C   UNL     1       2.146  -1.614  -6.816  1.00  0.00     0.105 C 
ENDBRANCH  30  31
ENDBRANCH  29  30
ENDBRANCH   5  29
BRANCH   7  37
ATOM     37  N   UNL     1       0.285   2.316   0.843  1.00  0.00    -0.346 N 
ATOM     38  C   UNL     1       0.623   3.546   0.082  1.00  0.00     0.140 C 
ATOM     39  C   UNL     1      -0.538   2.507   2.056  1.00  0.00     0.141 CG0
ATOM     40  C   UNL     1       0.504   4.823   0.932  1.00  0.00     0.141 C 
ATOM     41  C   UNL     1      -1.503   3.702   1.873  1.00  0.00     0.148 C 
ATOM     42  N   UNL     1      -0.809   4.951   1.566  1.00  0.00    -0.337 N 
ATOM     43  G   UNL     1      -1.348   1.282   2.440  1.00  0.00     0.000 G0
BRANCH  42  44
ATOM     44  C   UNL     1      -1.459   6.153   1.809  1.00  0.00     0.242 C 
ATOM     45  O   UNL     1      -2.610   6.216   2.234  1.00  0.00    -0.273 OA
BRANCH  44  46
ATOM     46  C   UNL     1      -0.716   7.443   1.516  1.00  0.00     0.096 C 
ATOM     47  C   UNL     1      -0.739   8.527   2.576  1.00  0.00     0.035 C 
ATOM     48  C   UNL     1       0.533   7.788   2.294  1.00  0.00     0.035 C 
BRANCH  46  49
ATOM     49  N   UNL     1      -0.820   7.870   0.101  1.00  0.00    -0.317 NA
ATOM     50  H   UNL     1      -0.547   8.846  -0.000  1.00  0.00     0.119 HD
ATOM     51  H   UNL     1      -1.803   7.834  -0.178  1.00  0.00     0.119 HD
ENDBRANCH  46  49
ENDBRANCH  44  46
ENDBRANCH  42  44
ENDBRANCH   7  37
TORSDOF 9
